============================== echo of input deck ==============================
echo

start c3

title "TDDFT c3 BLYP/pcs0"

geometry units angstroms
load c3.xyz
end

basis  spherical
 * library pcS-0
end

dft
 xc becke88 lyp
 direct
 convergence nolevelshifting
 tolerances tight
 iterations 1000
end

hessian
 thresh 1d-8
 profile
end

property
 response  1 8.8559E-2
 damping 0.007
end

raman
 normal
end

driver
 maxiter 1000
 xyz opt
end

task dft optimize
task dft raman numerical

freq
 reuse
 temp 1 0.0
end

task dft freq numerical

================================================================================

         Total DFT energy =     -116.231158311768
@ Step       Energy      Delta E   Gmax     Grms     Xrms     Xmax   Walltime
@ ---- ---------------- -------- -------- -------- -------- -------- --------
@    0    -116.23115831  0.0D+00  0.24807  0.06360  0.00000  0.00000      3.1
         Total DFT energy =     -116.300329446556
         Total DFT energy =     -116.300510969427
@    1    -116.30051097 -6.9D-02  0.01132  0.00519  0.17439  0.35080      7.7
         Total DFT energy =     -116.307306513190
         Total DFT energy =     -116.322538821721
@    2    -116.32253882 -2.2D-02  0.02448  0.00734  0.12502  0.27420     11.9
         Total DFT energy =     -116.328361531490
         Total DFT energy =     -116.331202674632
@    3    -116.33120267 -8.7D-03  0.03325  0.01014  0.08539  0.14229     16.3
         Total DFT energy =     -116.336966254221
         Total DFT energy =     -116.337534761915
@    4    -116.33753476 -6.3D-03  0.01558  0.00474  0.05302  0.10733     20.7
         Total DFT energy =     -116.340457993899
         Total DFT energy =     -116.341726040621
@    5    -116.34172604 -4.2D-03  0.02178  0.00598  0.07419  0.11901     24.7
         Total DFT energy =     -116.343712346611
         Total DFT energy =     -116.343821472158
@    6    -116.34382147 -2.1D-03  0.00774  0.00199  0.04255  0.08211     28.3
         Total DFT energy =     -116.344278209073
         Total DFT energy =   -116.344278209073
@    7    -116.34427821 -4.6D-04  0.00137  0.00036  0.03095  0.05170     30.4
         Total DFT energy =     -116.344288403938
         Total DFT energy =     -116.344288906530
@    8    -116.34428891 -1.1D-05  0.00025  0.00007  0.00537  0.01046     33.6
         Total DFT energy =     -116.344290764259
         Total DFT energy =   -116.344290764259
@    9    -116.34429076 -1.9D-06  0.00010  0.00004  0.00107  0.00231     35.5
         Total DFT energy =     -116.344292710417
         Total DFT energy =   -116.344292710417
@   10    -116.34429271 -1.9D-06  0.00026  0.00006  0.00248  0.00580     37.3
         Total DFT energy =     -116.344292954554
         Total DFT energy =   -116.344292954554
@   11    -116.34429295 -2.4D-07  0.00017  0.00004  0.00069  0.00162     38.8
@   11    -116.34429295 -2.4D-07  0.00017  0.00004  0.00069  0.00162     38.8

 Output coordinates in angstroms (scale by  1.889725989 to convert to a.u.)

  No.       Tag          Charge          X              Y              Z
 ---- ---------------- ---------- -------------- -------------- --------------
    1 C                    6.0000    -0.00126215    -1.31436997    -0.00398377
    2 C                    6.0000    -0.00160677     0.00163558    -0.00280361
    3 H                    1.0000     0.66076844    -1.89209256     0.65755935
    4 H                    1.0000    -0.66393542    -1.89029623    -0.66653492
    5 C                    6.0000    -0.00176650     1.31759767    -0.00291264
    6 H                    1.0000    -0.66375880     1.89458296     0.65929505
    7 H                    1.0000     0.66101249     1.89382089    -0.66506421

         Total DFT energy =   -116.344292954554
         Total DFT energy =     -116.344275761792
         Total DFT energy =     -116.344277452864
         Total DFT energy =     -116.344253227743
         Total DFT energy =     -116.344250078401
         Total DFT energy =     -116.344276595328
         Total DFT energy =     -116.344276635870
         Total DFT energy =     -116.344287477638
         Total DFT energy =     -116.344287115743
         Total DFT energy =     -116.344228660026
         Total DFT energy =     -116.344230132969
         Total DFT energy =     -116.344287074773
         Total DFT energy =     -116.344287529565
         Total DFT energy =     -116.344285977501
         Total DFT energy =     -116.344286109885
         Total DFT energy =     -116.344286438485
         Total DFT energy =     -116.344286370410
         Total DFT energy =     -116.344285978212
         Total DFT energy =     -116.344286126034
         Total DFT energy =     -116.344286500692
         Total DFT energy =     -116.344285572774
         Total DFT energy =     -116.344286069885
         Total DFT energy =     -116.344286788110
         Total DFT energy =     -116.344286218018
         Total DFT energy =     -116.344285859036
         Total DFT energy =     -116.344277290391
         Total DFT energy =     -116.344276010506
         Total DFT energy =     -116.344250113370
         Total DFT energy =     -116.344253185536
         Total DFT energy =     -116.344276816285
         Total DFT energy =     -116.344276511124
         Total DFT energy =     -116.344286183041
         Total DFT energy =     -116.344285884937
         Total DFT energy =     -116.344286761992
         Total DFT energy =     -116.344286064284
         Total DFT energy =     -116.344285830796
         Total DFT energy =     -116.344286231477
         Total DFT energy =     -116.344285490976
         Total DFT energy =     -116.344286557645
         Total DFT energy =     -116.344287096205
         Total DFT energy =     -116.344285750545
         Total DFT energy =     -116.344286239593
         Total DFT energy =     -116.344285828051
 Zero-Point correction to Energy  =   34.084 kcal/mol  (  0.054317 au)
 Thermal correction to Energy     =   36.444 kcal/mol  (  0.058077 au)
 Thermal correction to Enthalpy   =   37.036 kcal/mol  (  0.059020 au)
 Total Entropy                    =   60.635 cal/mol-K
   - Translational                =   36.973 cal/mol-K (mol. weight =  40.0313)
   - Rotational                   =   20.904 cal/mol-K (symmetry #  =        1)
   - Vibrational                  =    2.758 cal/mol-K
   - Translational                  =    2.979 cal/mol-K
   - Rotational                     =    2.979 cal/mol-K
   - Vibrational                    =    5.766 cal/mol-K
 P.Frequency       -0.00        0.00        0.00        0.00        0.00        0.00
 P.Frequency      384.40      384.43      866.90      893.69      893.79     1021.00
 P.Frequency     1021.12     1076.42     1439.99     1471.21     2011.98     3067.43
 P.Frequency     3069.96     3125.46     3125.86
         Total DFT energy =     -116.344291933896
         Total DFT energy =     -116.344292738774
         Total DFT energy =     -116.344292238000
         Total DFT energy =     -116.344292431916
         Total DFT energy =     -116.344291332923
         Total DFT energy =     -116.344291714213
         Total DFT energy =     -116.344291349884
         Total DFT energy =     -116.344290701404
         Total DFT energy =     -116.344291407711
         Total DFT energy =     -116.344290667611
         Total DFT energy =     -116.344289654467
         Total DFT energy =     -116.344290495647
         Total DFT energy =     -116.344289836295
         Total DFT energy =     -116.344290239685
         Total DFT energy =     -116.344286263204
         Total DFT energy =     -116.344286981539
         Total DFT energy =     -116.344288347785
         Total DFT energy =     -116.344289081127
         Total DFT energy =     -116.344289052208
         Total DFT energy =     -116.344286324682
         Total DFT energy =     -116.344220225570
         Total DFT energy =     -116.344221416997
         Total DFT energy =     -116.344274160114
         Total DFT energy =     -116.344274021931
         Total DFT energy =     -116.344274066720
         Total DFT energy =     -116.344274049698
         Total DFT energy =     -116.344272723244

 Vector    5  Occ=2.000000D+00  E=-6.341004D-01

 Vector    6  Occ=2.000000D+00  E=-4.646280D-01

 Vector    7  Occ=2.000000D+00  E=-4.116151D-01

 Vector    8  Occ=2.000000D+00  E=-3.928618D-01

 Vector    9  Occ=2.000000D+00  E=-3.928339D-01

 Vector   10  Occ=2.000000D+00  E=-2.324715D-01

 Vector   11  Occ=2.000000D+00  E=-2.324286D-01

 Vector   12  Occ=0.000000D+00  E=-1.641590D-02

 Vector   13  Occ=0.000000D+00  E=-1.636258D-02

 Vector   14  Occ=0.000000D+00  E= 8.544024D-02

 Vector   15  Occ=0.000000D+00  E= 9.704959D-02

 Vector   16  Occ=0.000000D+00  E= 1.478272D-01

 Vector   17  Occ=0.000000D+00  E= 1.478375D-01

 Vector   18  Occ=0.000000D+00  E= 3.060723D-01

 Vector   19  Occ=0.000000D+00  E= 4.810534D-01

 Vector   20  Occ=0.000000D+00  E= 5.492043D-01

 Vector   21  Occ=0.000000D+00  E= 6.366263D-01

         Total DFT energy =     -116.344272434033

 Vector    1  Occ=2.000000D+00  E=-9.943078D+00

 Vector    2  Occ=2.000000D+00  E=-9.925122D+00

 Vector    3  Occ=2.000000D+00  E=-9.923773D+00

 Vector    4  Occ=2.000000D+00  E=-7.066000D-01

 Vector    5  Occ=2.000000D+00  E=-6.341011D-01

 Vector    6  Occ=2.000000D+00  E=-4.646306D-01

 Vector    7  Occ=2.000000D+00  E=-4.116171D-01

 Vector    8  Occ=2.000000D+00  E=-3.928596D-01

 Vector    9  Occ=2.000000D+00  E=-3.928368D-01

 Vector   10  Occ=2.000000D+00  E=-2.324710D-01

 Vector   11  Occ=2.000000D+00  E=-2.324293D-01

 Vector   12  Occ=0.000000D+00  E=-1.641671D-02

 Vector   13  Occ=0.000000D+00  E=-1.636297D-02

 Vector   14  Occ=0.000000D+00  E= 8.544591D-02

 Vector   15  Occ=0.000000D+00  E= 9.705473D-02

 Vector   16  Occ=0.000000D+00  E= 1.478300D-01

 Vector   17  Occ=0.000000D+00  E= 1.478375D-01

 Vector   18  Occ=0.000000D+00  E= 3.060698D-01

 Vector   19  Occ=0.000000D+00  E= 4.810516D-01

 Vector   20  Occ=0.000000D+00  E= 5.492012D-01

 Vector   21  Occ=0.000000D+00  E= 6.366496D-01

         Total DFT energy =     -116.344272614643

 Vector    1  Occ=2.000000D+00  E=-9.943064D+00

 Vector    2  Occ=2.000000D+00  E=-9.925129D+00

 Vector    3  Occ=2.000000D+00  E=-9.923780D+00

 Vector    4  Occ=2.000000D+00  E=-7.065976D-01

 Vector    5  Occ=2.000000D+00  E=-6.340994D-01

 Vector    6  Occ=2.000000D+00  E=-4.646271D-01

 Vector    7  Occ=2.000000D+00  E=-4.116137D-01

 Vector    8  Occ=2.000000D+00  E=-3.928801D-01

 Vector    9  Occ=2.000000D+00  E=-3.928143D-01

 Vector   10  Occ=2.000000D+00  E=-2.324702D-01

 Vector   11  Occ=2.000000D+00  E=-2.324276D-01

 Vector   12  Occ=0.000000D+00  E=-1.641513D-02

 Vector   13  Occ=0.000000D+00  E=-1.636175D-02

 Vector   14  Occ=0.000000D+00  E= 8.544073D-02

 Vector   15  Occ=0.000000D+00  E= 9.704960D-02

 Vector   16  Occ=0.000000D+00  E= 1.478249D-01

 Vector   17  Occ=0.000000D+00  E= 1.478404D-01

 Vector   18  Occ=0.000000D+00  E= 3.060734D-01

 Vector   19  Occ=0.000000D+00  E= 4.810540D-01

 Vector   20  Occ=0.000000D+00  E= 5.492049D-01

 Vector   21  Occ=0.000000D+00  E= 6.366455D-01

         Total DFT energy =     -116.344272259511

                       DFT Final Molecular Orbital Analysis
                       ------------------------------------

 Vector    1  Occ=2.000000D+00  E=-9.943077D+00

 Vector    2  Occ=2.000000D+00  E=-9.925122D+00

 Vector    3  Occ=2.000000D+00  E=-9.923773D+00

 Vector    4  Occ=2.000000D+00  E=-7.065998D-01

 Vector    5  Occ=2.000000D+00  E=-6.341011D-01

 Vector    6  Occ=2.000000D+00  E=-4.646309D-01

 Vector    7  Occ=2.000000D+00  E=-4.116175D-01

 Vector    8  Occ=2.000000D+00  E=-3.928854D-01

 Vector    9  Occ=2.000000D+00  E=-3.928110D-01

 Vector   10  Occ=2.000000D+00  E=-2.324724D-01

 Vector   11  Occ=2.000000D+00  E=-2.324275D-01

 Vector   12  Occ=0.000000D+00  E=-1.641661D-02

 Vector   13  Occ=0.000000D+00  E=-1.636280D-02

 Vector   14  Occ=0.000000D+00  E= 8.544579D-02

 Vector   15  Occ=0.000000D+00  E= 9.705492D-02

 Vector   16  Occ=0.000000D+00  E= 1.478220D-01

 Vector   17  Occ=0.000000D+00  E= 1.478462D-01

 Vector   18  Occ=0.000000D+00  E= 3.060699D-01

 Vector   19  Occ=0.000000D+00  E= 4.810514D-01

 Vector   20  Occ=0.000000D+00  E= 5.492012D-01

 Vector   21  Occ=0.000000D+00  E= 6.366661D-01

     Multipole analysis of the density
     ---------------------------------

     L   x y z        total         alpha         beta         nuclear
     -   - - -        -----         -----         ----         -------
     0   0 0 0     -0.000000    -11.000000    -11.000000     22.000000

     1   1 0 0      0.000334      0.034097      0.034097     -0.067860
     1   0 1 0     -0.000223     -0.033375     -0.033375      0.066527
     1   0 0 1      0.000180      0.071099      0.071099     -0.142019

     2   2 0 0    -14.530970    -10.399060    -10.399060      6.267151
     2   1 1 0      0.000059     -0.005834     -0.005834      0.011728
     2   1 0 1     -0.000352      0.000006      0.000006     -0.000363
     2   0 2 0    -11.147675    -68.265651    -68.265651    125.383627
     2   0 1 1      0.001680     -0.038168     -0.038168      0.078015

 Zero-Point correction to Energy  =   34.084 kcal/mol  (  0.054317 au)
 Thermal correction to Energy     =   34.084 kcal/mol  (  0.054317 au)
 Thermal correction to Enthalpy   =   34.084 kcal/mol  (  0.054317 au)
 Total Entropy                    =     -Inf cal/mol-K
   - Translational                =     -Inf cal/mol-K (mol. weight =  40.0313)
   - Rotational                   =     -Inf cal/mol-K (symmetry #  =        1)
   - Vibrational                  =    0.000 cal/mol-K
   - Translational                  =    2.979 cal/mol-K
   - Rotational                     =    2.979 cal/mol-K
   - Vibrational                    =    0.000 cal/mol-K
 P.Frequency       -0.00        0.00        0.00        0.00        0.00        0.00
 P.Frequency      384.40      384.43      866.90      893.69      893.79     1021.00
 P.Frequency     1021.12     1076.42     1439.99     1471.21     2011.98     3067.43
 P.Frequency     3069.96     3125.46     3125.86

 Normal Eigenvalue ||           Projected Infra Red Intensities
  Mode   [cm**-1]  || [atomic units] [(debye/angs)**2] [(KM/mol)] [arbitrary]
 ------ ---------- || -------------- ----------------- ---------- -----------
    1       -0.000 ||    0.000000           0.000         0.000       0.000
    2        0.000 ||    0.000000           0.000         0.000       0.000
    3        0.000 ||    0.000000           0.000         0.000       0.000
    4        0.000 ||    0.000001           0.000         0.001       0.001
    5        0.000 ||    0.000002           0.000         0.002       0.001
    6        0.000 ||    0.000000           0.000         0.000       0.000
    7      384.405 ||    0.006181           0.143         6.025       5.853
    8      384.428 ||    0.006272           0.145         6.115       5.940
    9      866.900 ||    0.000001           0.000         0.001       0.001
   10      893.688 ||    0.069107           1.594        67.369      65.446
   11      893.791 ||    0.068883           1.589        67.151      65.234
   12     1020.997 ||    0.004300           0.099         4.192       4.072
   13     1021.123 ||    0.004213           0.097         4.107       3.990
   14     1076.419 ||    0.000000           0.000         0.000       0.000
   15     1439.987 ||    0.007173           0.165         6.992       6.793
   16     1471.209 ||    0.000000           0.000         0.000       0.000
   17     2011.978 ||    0.048212           1.112        47.000      45.658
   18     3067.425 ||    0.003718           0.086         3.624       3.521
   19     3069.958 ||    0.000012           0.000         0.012       0.012
   20     3125.458 ||    0.001909           0.044         1.861       1.808
   21     3125.864 ||    0.001763           0.041         1.719       1.670
 ----------------------------------------------------------------------------

 Total times  cpu:      614.4s     wall:      608.0s
