============================== echo of input deck ==============================
echo

start bench

title "TDDFT benchmarks"

geometry units angstroms
load benzene.xyz
end

basis  spherical
 * library pcS-0
end

driver
 clear
 maxiter 12
 xyz test
end
dft
 xc becke88 lyp
 convergence energy 1d-8 nolevelshifting
 direct
 TOLERANCES tight
 ITERATIONS 5000
end

hessian
 thresh 1d-8
 profile
end

property
 response  1 8.8559E-2
 damping 0.007
end

raman
  normal
end

task dft optimize
task dft raman numerical

freq
 reuse
end

task dft freq
================================================================================

         Total DFT energy =     -231.637400124747
@ Step       Energy      Delta E   Gmax     Grms     Xrms     Xmax   Walltime
@ ---- ---------------- -------- -------- -------- -------- -------- --------
@    0    -231.63740012  0.0D+00  0.00610  0.00282  0.00000  0.00000      2.0
         Total DFT energy =     -231.637917922819
         Total DFT energy =   -231.637917922819
@    1    -231.63791792 -5.2D-04  0.00022  0.00010  0.01328  0.02901      3.6
         Total DFT energy =     -231.637918588503
         Total DFT energy =   -231.637918588503
@    2    -231.63791859 -6.7D-07  0.00001  0.00000  0.00046  0.00099      5.0
@    2    -231.63791859 -6.7D-07  0.00001  0.00000  0.00046  0.00099      5.0

 Output coordinates in angstroms (scale by  1.889725989 to convert to a.u.)

  No.       Tag          Charge          X              Y              Z
 ---- ---------------- ---------- -------------- -------------- --------------
    1 C                    6.0000    -0.99638716     0.99638716     0.00000000
    2 H                    1.0000    -1.77175813     1.77175813     0.00000000
    3 C                    6.0000    -1.36109017    -0.36470301     0.00000000
    4 H                    1.0000    -2.42026662    -0.64850849     0.00000000
    5 C                    6.0000    -0.36470301    -1.36109017     0.00000000
    6 H                    1.0000    -0.64850849    -2.42026662     0.00000000
    7 C                    6.0000     0.99638716    -0.99638716     0.00000000
    8 H                    1.0000     1.77175813    -1.77175813     0.00000000
    9 C                    6.0000     1.36109017     0.36470301     0.00000000
   10 H                    1.0000     2.42026662     0.64850849     0.00000000
   11 C                    6.0000     0.36470301     1.36109017     0.00000000
   12 H                    1.0000     0.64850849     2.42026662     0.00000000

         Total DFT energy =   -231.637918588503
         Total DFT energy =     -231.637901878726
         Total DFT energy =     -231.637901606198
         Total DFT energy =     -231.637897796238
         Total DFT energy =     -231.637898450395
         Total DFT energy =     -231.637926469681
         Total DFT energy =     -231.637926469685
         Total DFT energy =     -231.637929583045
         Total DFT energy =     -231.637929594580
         Total DFT energy =     -231.637917197690
         Total DFT energy =     -231.637917017049
         Total DFT energy =     -231.637932166467
         Total DFT energy =     -231.637932166467
 Zero-Point correction to Energy  =   62.194 kcal/mol  (  0.099113 au)
 Thermal correction to Energy     =   64.957 kcal/mol  (  0.103516 au)
 Thermal correction to Enthalpy   =   65.550 kcal/mol  (  0.104460 au)
 Total Entropy                    =   64.162 cal/mol-K
   - Translational                =   38.962 cal/mol-K (mol. weight =  78.0469)
   - Rotational                   =   20.767 cal/mol-K (symmetry #  =       12)
   - Vibrational                  =    4.434 cal/mol-K
   - Translational                  =    2.979 cal/mol-K
   - Rotational                     =    2.979 cal/mol-K
   - Vibrational                    =   11.291 cal/mol-K
 P.Frequency       -0.00        0.00        0.00        0.00        0.00        0.00
 P.Frequency      408.00      408.00      630.47      630.47      690.71      716.58
 P.Frequency      865.34      865.34      977.49      995.71      995.71     1022.38
 P.Frequency     1022.38     1027.65     1033.50     1182.66     1191.69     1191.69
 P.Frequency     1334.64     1381.83     1487.81     1487.81     1587.83     1587.83
 P.Frequency     3117.91     3124.37     3124.37     3140.72     3140.72     3154.84
         Total DFT energy =     -231.637933127452
         Total DFT energy =     -231.637933127363
         Total DFT energy =     -231.637933127335
         Total DFT energy =     -231.637933127556
         Total DFT energy =     -231.637932862722
         Total DFT energy =     -231.637932521198
         Total DFT energy =     -231.637932691905
         Total DFT energy =     -231.637932691881
         Total DFT energy =     -231.637932542618
         Total DFT energy =     -231.637932542352
         Total DFT energy =     -231.637932469879
         Total DFT energy =     -231.637932471334
         Total DFT energy =     -231.637932028898
         Total DFT energy =     -231.637932029182
         Total DFT energy =     -231.637932028122
         Total DFT energy =     -231.637932024912
         Total DFT energy =     -231.637931588302
         Total DFT energy =     -231.637931683182
         Total DFT energy =     -231.637931567094
         Total DFT energy =     -231.637931566975
         Total DFT energy =     -231.637931560884
         Total DFT energy =     -231.637931559932
         Total DFT energy =     -231.637931468400
         Total DFT energy =     -231.637931468412
         Total DFT energy =     -231.637931464761
         Total DFT energy =     -231.637931464777
         Total DFT energy =     -231.637931444615
         Total DFT energy =     -231.637931444600
         Total DFT energy =     -231.637931421049
         Total DFT energy =     -231.637931421051
         Total DFT energy =     -231.637930796185
         Total DFT energy =     -231.637930795892
         Total DFT energy =     -231.637930807067
         Total DFT energy =     -231.637930704523
         Total DFT energy =     -231.637930754920
         Total DFT energy =     -231.637930754952
         Total DFT energy =     -231.637930071206
         Total DFT energy =     -231.637930068463
         Total DFT energy =     -231.637929821156
         Total DFT energy =     -231.637929827174
         Total DFT energy =     -231.637929253477
         Total DFT energy =     -231.637929253478
         Total DFT energy =     -231.637929249183
         Total DFT energy =     -231.637929249189
         Total DFT energy =     -231.637928761594
         Total DFT energy =     -231.637928582948
         Total DFT energy =     -231.637928668788
         Total DFT energy =     -231.637928668740
         Total DFT energy =     -231.637915054417
         Total DFT energy =     -231.637915057428
         Total DFT energy =     -231.637914972764
         Total DFT energy =     -231.637914972751
         Total DFT energy =     -231.637914996998
         Total DFT energy =     -231.637914949977
         Total DFT energy =     -231.637914779165
         Total DFT energy =     -231.637914779174
         Total DFT energy =     -231.637914780462
         Total DFT energy =     -231.637914780463

 Vector   19  Occ=2.000000D+00  E=-3.052960D-01

 Vector   20  Occ=2.000000D+00  E=-2.218139D-01

 Vector   21  Occ=2.000000D+00  E=-2.218117D-01

 Vector   22  Occ=0.000000D+00  E=-3.072394D-02

 Vector   23  Occ=0.000000D+00  E=-3.072333D-02

 Vector   24  Occ=0.000000D+00  E= 6.714706D-02

 Vector   25  Occ=0.000000D+00  E= 9.622839D-02

 Vector   26  Occ=0.000000D+00  E= 9.623692D-02

 Vector   27  Occ=0.000000D+00  E= 1.076250D-01

 Vector   28  Occ=0.000000D+00  E= 1.368022D-01

 Vector   29  Occ=0.000000D+00  E= 1.368309D-01

 Vector   30  Occ=0.000000D+00  E= 1.461688D-01

 Vector   31  Occ=0.000000D+00  E= 2.864514D-01

 Vector   32  Occ=0.000000D+00  E= 2.864528D-01

 Vector   33  Occ=0.000000D+00  E= 3.138051D-01

 Vector   34  Occ=0.000000D+00  E= 3.138059D-01

 Vector   35  Occ=0.000000D+00  E= 4.687111D-01

 Vector   36  Occ=0.000000D+00  E= 5.042146D-01

         Total DFT energy =     -231.637914522739

 Vector    6  Occ=2.000000D+00  E=-9.924760D+00

 Vector    7  Occ=2.000000D+00  E=-7.663384D-01

 Vector    8  Occ=2.000000D+00  E=-6.668014D-01

 Vector    9  Occ=2.000000D+00  E=-6.667987D-01

 Vector   10  Occ=2.000000D+00  E=-5.386604D-01

 Vector   11  Occ=2.000000D+00  E=-5.386603D-01

 Vector   12  Occ=2.000000D+00  E=-4.684838D-01

 Vector   13  Occ=2.000000D+00  E=-4.064881D-01

 Vector   14  Occ=2.000000D+00  E=-4.054145D-01

 Vector   15  Occ=2.000000D+00  E=-3.770022D-01

 Vector   16  Occ=2.000000D+00  E=-3.769990D-01

 Vector   17  Occ=2.000000D+00  E=-3.209222D-01

 Vector   18  Occ=2.000000D+00  E=-3.051309D-01

 Vector   19  Occ=2.000000D+00  E=-3.051306D-01

 Vector   20  Occ=2.000000D+00  E=-2.219041D-01

 Vector   21  Occ=2.000000D+00  E=-2.219020D-01

 Vector   22  Occ=0.000000D+00  E=-3.073275D-02

 Vector   23  Occ=0.000000D+00  E=-3.073235D-02

 Vector   24  Occ=0.000000D+00  E= 6.641954D-02

 Vector   25  Occ=0.000000D+00  E= 9.563836D-02

 Vector   26  Occ=0.000000D+00  E= 9.564210D-02

 Vector   27  Occ=0.000000D+00  E= 1.076798D-01

 Vector   28  Occ=0.000000D+00  E= 1.363874D-01

 Vector   29  Occ=0.000000D+00  E= 1.363875D-01

 Vector   30  Occ=0.000000D+00  E= 1.454990D-01

 Vector   31  Occ=0.000000D+00  E= 2.864843D-01

 Vector   32  Occ=0.000000D+00  E= 2.864854D-01

 Vector   33  Occ=0.000000D+00  E= 3.140049D-01

 Vector   34  Occ=0.000000D+00  E= 3.140063D-01

 Vector   35  Occ=0.000000D+00  E= 4.686504D-01

 Vector   36  Occ=0.000000D+00  E= 5.044061D-01

         Total DFT energy =     -231.637914707343

                       DFT Final Molecular Orbital Analysis
                       ------------------------------------

 Vector    6  Occ=2.000000D+00  E=-9.924242D+00

 Vector    7  Occ=2.000000D+00  E=-7.660176D-01

 Vector    8  Occ=2.000000D+00  E=-6.668496D-01

 Vector    9  Occ=2.000000D+00  E=-6.668468D-01

 Vector   10  Occ=2.000000D+00  E=-5.390479D-01

 Vector   11  Occ=2.000000D+00  E=-5.390477D-01

 Vector   12  Occ=2.000000D+00  E=-4.691520D-01

 Vector   13  Occ=2.000000D+00  E=-4.077104D-01

 Vector   14  Occ=2.000000D+00  E=-4.051271D-01

 Vector   15  Occ=2.000000D+00  E=-3.774451D-01

 Vector   16  Occ=2.000000D+00  E=-3.774417D-01

 Vector   17  Occ=2.000000D+00  E=-3.206487D-01

 Vector   18  Occ=2.000000D+00  E=-3.054649D-01

 Vector   19  Occ=2.000000D+00  E=-3.054646D-01

 Vector   20  Occ=2.000000D+00  E=-2.217235D-01

 Vector   21  Occ=2.000000D+00  E=-2.217213D-01

 Vector   22  Occ=0.000000D+00  E=-3.071476D-02

 Vector   23  Occ=0.000000D+00  E=-3.071421D-02

 Vector   24  Occ=0.000000D+00  E= 6.790174D-02

 Vector   25  Occ=0.000000D+00  E= 9.681477D-02

 Vector   26  Occ=0.000000D+00  E= 9.681862D-02

 Vector   27  Occ=0.000000D+00  E= 1.075703D-01

 Vector   28  Occ=0.000000D+00  E= 1.372686D-01

 Vector   29  Occ=0.000000D+00  E= 1.372686D-01

 Vector   30  Occ=0.000000D+00  E= 1.467828D-01

 Vector   31  Occ=0.000000D+00  E= 2.864193D-01

 Vector   32  Occ=0.000000D+00  E= 2.864204D-01

 Vector   33  Occ=0.000000D+00  E= 3.136047D-01

 Vector   34  Occ=0.000000D+00  E= 3.136061D-01

 Vector   35  Occ=0.000000D+00  E= 4.687719D-01

 Vector   36  Occ=0.000000D+00  E= 5.040229D-01

     Multipole analysis of the density
     ---------------------------------

     L   x y z        total         alpha         beta         nuclear
     -   - - -        -----         -----         ----         -------
     0   0 0 0     -0.000000    -21.000000    -21.000000     42.000000

     1   1 0 0      0.000020      0.000010      0.000010      0.000000
     1   0 1 0     -0.000020     -0.000010     -0.000010     -0.000000
     1   0 0 1      0.000000      0.000000      0.000000      0.000000

     2   2 0 0    -23.545354   -109.180486   -109.180486    194.815619
     2   1 1 0     -0.000031     -0.000016     -0.000016      0.000000
     2   1 0 1     -0.000000     -0.000000     -0.000000      0.000000
     2   0 2 0    -23.545354   -109.180486   -109.180486    194.815619
     2   0 1 1     -0.000000     -0.000000     -0.000000      0.000000

 Zero-Point correction to Energy  =   62.194 kcal/mol  (  0.099113 au)
 Thermal correction to Energy     =   64.957 kcal/mol  (  0.103516 au)
 Thermal correction to Enthalpy   =   65.550 kcal/mol  (  0.104460 au)
 Total Entropy                    =   64.162 cal/mol-K
   - Translational                =   38.962 cal/mol-K (mol. weight =  78.0469)
   - Rotational                   =   20.767 cal/mol-K (symmetry #  =       12)
   - Vibrational                  =    4.434 cal/mol-K
   - Translational                  =    2.979 cal/mol-K
   - Rotational                     =    2.979 cal/mol-K
   - Vibrational                    =   11.291 cal/mol-K
 P.Frequency       -0.00        0.00        0.00        0.00        0.00        0.00
 P.Frequency      408.00      408.00      630.47      630.47      690.71      716.58
 P.Frequency      865.34      865.34      977.49      995.71      995.71     1022.38
 P.Frequency     1022.38     1027.65     1033.50     1182.66     1191.69     1191.69
 P.Frequency     1334.64     1381.83     1487.81     1487.81     1587.83     1587.83
 P.Frequency     3117.91     3124.37     3124.37     3140.72     3140.72     3154.84

 Normal Eigenvalue ||           Projected Infra Red Intensities
  Mode   [cm**-1]  || [atomic units] [(debye/angs)**2] [(KM/mol)] [arbitrary]
 ------ ---------- || -------------- ----------------- ---------- -----------
    1       -0.000 ||    0.000000           0.000         0.000       0.000
    2        0.000 ||    0.000000           0.000         0.000       0.000
    3        0.000 ||    0.000000           0.000         0.000       0.000
    4        0.000 ||    0.000000           0.000         0.000       0.000
    5        0.000 ||    0.000000           0.000         0.000       0.000
    6        0.000 ||    0.000000           0.000         0.000       0.000
    7      408.004 ||    0.000000           0.000         0.000       0.000
    8      408.004 ||    0.000000           0.000         0.000       0.000
    9      630.465 ||    0.000000           0.000         0.000       0.000
   10      630.465 ||    0.000000           0.000         0.000       0.000
   11      690.707 ||    0.115883           2.674       112.968     189.132
   12      716.577 ||    0.000000           0.000         0.000       0.000
   13      865.338 ||    0.000000           0.000         0.000       0.000
   14      865.338 ||    0.000000           0.000         0.000       0.000
   15      977.495 ||    0.000000           0.000         0.000       0.000
   16      995.708 ||    0.000000           0.000         0.000       0.000
   17      995.708 ||    0.000000           0.000         0.000       0.000
   18     1022.384 ||    0.004023           0.093         3.922       6.566
   19     1022.384 ||    0.004023           0.093         3.922       6.566
   20     1027.652 ||    0.000000           0.000         0.000       0.000
   21     1033.503 ||    0.000000           0.000         0.000       0.000
   22     1182.656 ||    0.000000           0.000         0.000       0.000
   23     1191.693 ||    0.000000           0.000         0.000       0.000
   24     1191.693 ||    0.000000           0.000         0.000       0.000
   25     1334.636 ||    0.000000           0.000         0.000       0.000
   26     1381.826 ||    0.000000           0.000         0.000       0.000
   27     1487.813 ||    0.012624           0.291        12.306      20.603
   28     1487.813 ||    0.012624           0.291        12.306      20.603
   29     1587.829 ||    0.000000           0.000         0.000       0.000
   30     1587.829 ||    0.000000           0.000         0.000       0.000
   31     3117.914 ||    0.000000           0.000         0.000       0.000
   32     3124.368 ||    0.000000           0.000         0.000       0.000
   33     3124.368 ||    0.000000           0.000         0.000       0.000
   34     3140.719 ||    0.035699           0.824        34.801      58.265
   35     3140.719 ||    0.035699           0.824        34.801      58.265
   36     3154.836 ||    0.000000           0.000         0.000       0.000
 ----------------------------------------------------------------------------

 Total times  cpu:     5450.9s     wall:     5457.1s
